  8
# step:    0,  t(fs):  0.000,   E =  -0.412077E-04,   Ek =   0.000000E+00,   Ep =  -0.412077E-04
 He   7.9325599417530004        14.001660976296002      -0.92910273432599999     
 He  -2.2922944510830003        7.1290861985550000       -6.1842420458160001     
 He  -1.1334388175190002       -2.8325293485510001       0.61310273588399999     
 He   11.149969805091001       -2.2888362523200003        11.379590423502000     
 He   1.6902088183620001       0.95206290644100000        8.1570594024330010     
 He   6.0251649027180001        5.4316019347080005        4.7540406415529999     
 He   5.5607647136429996        5.5009548825780001       -3.1096387838550004     
 He  -4.6767886385850002       -3.9786293309400000        10.559600474190001     
  8
# step:    1,  t(fs):    10.000,   E =  -0.412077E-04,   Ek =   0.202691E-08,   Ep =  -0.412097E-04
 He   7.9325513652851649        14.001632386912840      -0.92910379096314777     
 He  -2.2922629238100378        7.1290780408795280       -6.1842268773856111     
 He  -1.1334279973997883       -2.8325104293488503       0.61312957073479002     
 He   11.149959495976097       -2.2888304394254559        11.379584652595728     
 He   1.6902440091698197       0.95209437905055716        8.1569990548697877     
 He   6.0250985750837378        5.4315379378965893        4.7540304615089886     
 He   5.5607409625126927        5.5009764295979773       -3.1095854181945084     
 He  -4.6767572124376855       -3.9786063387961841        10.559582460398975     
  8
# step:    2,  t(fs):    20.000,   E =  -0.412077E-04,   Ek =   0.810904E-08,   Ep =  -0.412158E-04
 He   7.9325256351859910        14.001546617299448      -0.92910696138238824     
 He  -2.2921683401017909        7.1290535675791631       -6.1841813707709390     
 He  -1.1333955357881189       -2.8324536700193139       0.61321007761778734     
 He   11.149928568388578       -2.2888130006063783        11.379567339636420     
 He   1.6903495957196979       0.95218881111109877        8.1568179984695739     
 He   6.0248995781294372        5.4313459333021363        4.7539999274577633     
 He   5.5606697075866345        5.5010410710650692       -3.1094253160047023     
 He  -4.6766629347404294       -3.9785373629642220        10.559528418541488     
  8
# step:    3,  t(fs):    30.000,   E =  -0.412077E-04,   Ek =   0.182506E-07,   Ep =  -0.412260E-04
 He   7.9324827493682664        14.001403663063707      -0.92911224710717433     
 He  -2.2920106942898664        7.1290127778320524       -6.1841055220010679     
 He  -1.1333414289212369       -2.8323590653923363       0.61334426352552307     
 He   11.149877021599989       -2.2887839354563968        11.379538483902541     
 He   1.6905256204030688       0.95234624533096368        8.1565161920891480     
 He   6.0245678696892302        5.4310258784322523        4.7539490576510683     
 He   5.5605509442587779        5.5011488082000524       -3.1091584616596060     
 He  -4.6765058077282315       -3.9784224052432928        10.559438347164571     
  8
# step:    4,  t(fs):    40.000,   E =  -0.412077E-04,   Ek =   0.324585E-07,   Ep =  -0.412402E-04
 He   7.9324227043526081        14.001203516884088      -0.92911965067679891     
 He  -2.2917899769258869        7.1289556702684100       -6.1839993244564688     
 He  -1.1332656705256987       -2.8322266068485153       0.61353214011437918     
 He   11.149804854396125       -2.2887432432980939        11.379498084191333     
 He   1.6907721539129199       0.95256675293315696        8.1560935671181802     
 He   6.0241033794488912        5.4305777024271800        4.7538778825395553     
 He   5.5603846648502504        5.5012996430352032       -3.1087848291126470     
 He  -4.6762858351292111       -3.9782614686344262        10.559312243847470     
  8
# step:    5,  t(fs):    50.000,   E =  -0.412077E-04,   Ek =   0.507426E-07,   Ep =  -0.412585E-04
 He   7.9323454952664179        14.000946168507664      -0.92912917564670172     
 He  -2.2915061747799084        7.1288822429704695       -6.1838627688669945     
 He  -1.1331682518140942       -2.8320562823151345       0.61377372370783512     
 He   11.149712065076852       -2.2886909231828079        11.379446138818510     
 He   1.6910892953047263       0.95285043371905265        8.1555500274216985     
 He   6.0235060088891323        5.4300013060010883        4.7537864448194549     
 He   5.5601708586061589        5.5014935784107726       -3.1083043818917448     
 He  -4.6760030221692865       -3.9780545573441013        10.559150105202946     
  8
# step:    6,  t(fs):    60.000,   E =  -0.412077E-04,   Ek =   0.731156E-07,   Ep =  -0.412808E-04
 He   7.9322511158424156        14.000631604747317      -0.92914082658889785     
 He  -2.2911592708382034        7.1287924934724209       -6.1836958433090734     
 He  -1.1330491614804510       -2.8318480762606004       0.61406903530101342     
 He   11.149598651455872       -2.2886269738903535        11.379382645617838     
 He   1.6914771720818320       0.95319741615766373        8.1548854492594760     
 He   6.0227756312061498        5.4292965613598039        4.7536747994980058     
 He   5.5599095116911137        5.5017306179700354       -3.1077170730924468     
 He  -4.6756573755787301       -3.9778016767892859        10.558951926879088     
  8
# step:    7,  t(fs):    70.000,   E =  -0.412077E-04,   Ek =   0.995930E-07,   Ep =  -0.413073E-04
 He   7.9321395584167593        14.000259809478155      -0.92915460909252900     
 He  -2.2907492443004132        7.1286864187603269       -6.1834985332020960     
 He  -1.1329083856943181       -2.8316019696872847       0.61441810056652568     
 He   11.149464610860409       -2.2885513939286657        11.379307601940585     
 He   1.6919359403053544       0.95360785750056343        8.1540996811822435     
 He   6.0219120912093453        5.4284633120949044        4.7535430139777493     
 He   5.5596006071834605        5.5020107661529218       -3.1070228453691247     
 He  -4.6752489036005995       -3.9775028336039200        10.558717703561648     
  8
# step:    8,  t(fs):    80.000,   E =  -0.412077E-04,   Ek =   0.130193E-06,   Ep =  -0.413379E-04
 He   7.9320108139267385        13.999830763633112      -0.92917052976453518     
 He  -2.2902760705760636        7.1285640152720218       -6.1832708213039975     
 He  -1.1327459080935216       -2.8313179401227599       0.61482094986162039     
 He   11.149309940130832       -2.2884641815333602        11.379221004654863     
 He   1.6924657847287037       0.95408194392256607        8.1531925439045931     
 He   6.0209152051961361        5.4275013730540600        4.7533911681597969     
 He   5.5592441250682221        5.5023340281882067       -3.1062216309242476     
 He  -4.6747776160010481       -3.9771580356468448        10.558447428976908     
  8
# step:    9,  t(fs):    90.000,   E =  -0.412077E-04,   Ek =   0.164937E-06,   Ep =  -0.413726E-04
 He   7.9318648719080471        13.999344445197758      -0.92918859623044703     
 He  -2.2897397212804500        7.1284252788969908       -6.1830126877060314     
 He  -1.1325617097755858       -2.8309959616094202       0.61527761823663341     
 He   11.149134635620202       -2.2883653346672159        11.379122850144828     
 He   1.6930669189568326       0.95461989068829867        8.1521638301544641     
 He   6.0197847608037467        5.4264105301875132        4.7532193545662373     
 He   5.5588400422287263        5.5027004100842563       -3.1053133514957527     
 He  -4.6742435240815201       -3.9767672920111790        10.558141095895069     
  8
# step:   10,  t(fs):   100.000,   E =  -0.412077E-04,   Ek =   0.203849E-06,   Ep =  -0.414116E-04
 He   7.9317017204916356        13.998800829204301      -0.92920881713529790     
 He  -2.2891401642298872        7.1282702049762365       -6.1827241098267312     
 He  -1.1323557692878101       -2.8306360046924808       0.61578814544474381     
 He   11.148938693193754       -2.2882548510195750        11.379013134309778     
 He   1.6937395856303474       0.95522194234481506        8.1510133044990329     
 He   6.0185205168378584        5.4251905403705418        4.7530276784818435     
 He   5.5583883324369285        5.5031099186183123       -3.1042979183425352     
 He  -4.6736466406928283       -3.9763306130351488        10.557798696134165     
  8
# step:   11,  t(fs):   110.000,   E =  -0.412077E-04,   Ek =   0.246957E-06,   Ep =  -0.414547E-04
 He   7.9315213464001326        13.998199887724773      -0.92923120214465416     
 He  -2.2884773634363271        7.1280987883021210       -6.1824050624050599     
 He  -1.1321280626159906       -2.8302380364063389       0.61635257595303605     
 He   11.148722108228316       -2.2881327280056620        11.378891852563113     
 He   1.6944840566346304       0.95588837294042583        8.1497407031468416     
 He   6.0171222030779683        5.4238411312017538        4.7528162581152849     
 He   5.5578889663423983        5.5035625613243022       -3.1031752322280890     
 He  -4.6729869802511299       -3.9758480103143716        10.557420220564525     
  8
# step:   12,  t(fs):   120.000,   E =  -0.412077E-04,   Ek =   0.294291E-06,   Ep =  -0.415020E-04
 He   7.9313237349438426        13.997541589863410      -0.92925576194576309     
 He  -2.2877512791013395        7.1279110231181964       -6.1820555174927412     
 He  -1.1318785631717763       -2.8298020202592880       0.61697095895487120     
 He   11.148484875611649       -2.2879989627658213        11.378758999831177     
 He   1.6953006333341374       0.95661948626993598        8.1483457337259448     
 He   6.0155895200593124        5.4223620007770199        4.7525852247800735     
 He   5.5573419114599698        5.5040583464791544       -3.1019451834023277     
 He  -4.6722645587557974       -3.9753194967156036        10.557005659113763     
  8
# step:   13,  t(fs):   130.000,   E =  -0.412077E-04,   Ek =   0.345884E-06,   Ep =  -0.415536E-04
 He   7.9311088700163115        13.996825901748212      -0.92928250824881686     
 He  -2.2869618676094627        7.1277069031190159       -6.1816754444457711     
 He  -1.1316072417786438       -2.8293279162165663       0.61764334838356960     
 He   11.148226989741721       -2.2878535521646715        11.378614570551974     
 He   1.6961896468320516       0.95741561614649962        8.1468280750378668     
 He   6.0139221388311741        5.4207528174388608        4.7523347230954851     
 He   5.5567471321560351        5.5045972830876018       -3.1006076515816230     
 He  -4.6714793938091885       -3.9747450863919491        10.556555000772313     
  8
# step:   14,  t(fs):   140.000,   E =  -0.412077E-04,   Ek =   0.401772E-06,   Ep =  -0.416095E-04
 He   7.9308767340894608        13.996052786521686      -0.92931145378833069     
 He  -2.2861090815209177        7.1274864214499294       -6.1812648099151026     
 He  -1.1313140666564794       -2.8288156806817248       0.61836980292740740     
 He   11.147948444525916       -2.2876964927901762        11.378458558673756     
 He   1.6971514582554847       0.95827712670031673        8.1451873767871152     
 He   6.0121197006914038        5.4190132195010667        4.7520649112077304     
 He   5.5561045896334624        5.5051793808654477       -3.0991625059271004     
 He  -4.6706315046383313       -3.9741247947995428        10.556068233599524     
  8
# step:   15,  t(fs):   150.000,   E =  -0.412077E-04,   Ek =   0.461996E-06,   Ep =  -0.416697E-04
 He   7.9306273082082850        13.995222204330762      -0.92934261232463444     
 He  -2.2851928695636872        7.1272495707068613       -6.1808235778365042     
 He  -1.1309990034047475       -2.8282652664762966       0.61915038604592987     
 He   11.147649233380172       -2.2875277809526322        11.378290957653489     
 He   1.6981864590664264       0.95920441270441059        8.1434232592860027     
 He   6.0101818168969530        5.4171428149483321        4.7517759610316661     
 He   5.5554142419151207        5.5058046502212727       -3.0976096050212401     
 He  -4.6697209121185228       -3.9734586387157069        10.555545344730291     
  8
# step:   16,  t(fs):   160.000,   E =  -0.412077E-04,   Ek =   0.526598E-06,   Ep =  -0.417343E-04
 He   7.9303605719851120        13.994334112315872      -0.92937599864547515     
 He  -2.2842131766249616        7.1269963429360770       -6.1803517094195790     
 He  -1.1306620149842319       -2.8276766228177452       0.61998516598758469     
 He   11.147329349228052       -2.2873474126835709        11.378111760455186     
 He   1.6992950713986517       0.96019789992773397        8.1415353131344883     
 He   6.0081080683502339        5.4151411811106698        4.7514680585133551     
 He   5.5546760438259932        5.5064731022365558       -3.0959487968428312     
 He  -4.6687476387988491       -3.9727466362585906        10.554986320382271     
  8
# step:   17,  t(fs):   170.000,   E =  -0.412077E-04,   Ek =   0.595625E-06,   Ep =  -0.418033E-04
 He   7.9300765035934191        13.993388464599208      -0.92941162856772852     
 He  -2.2831699437419513        7.1267267296339281       -6.1798491631359518     
 He  -1.1303030616973273       -2.8270496952956745       0.62087421580867785     
 He   11.146988784499742       -2.2871553837345755        11.377920959548115     
 He   1.7004777484207991       0.96125804551586036        8.1395230988747613     
 He   6.0058980052611037        5.4130078643123705        4.7511414039138087     
 He   5.5538899469738530        5.5071847486441845       -3.0941799187403349     
 He  -4.6677117089296392       -3.9719888069082994        10.554391145863651     
  8
# step:   18,  t(fs):   180.000,   E =  -0.412077E-04,   Ek =   0.669127E-06,   Ep =  -0.418768E-04
 He   7.9297750797612077        13.992385212272122      -0.92944951893921735     
 He  -2.2820631080920601        7.1264407217465875       -6.1793158947066038     
 He  -1.1299221011668616       -2.8263844258462703       0.62181761339365571     
 He   11.146627531130987       -2.2869516895760107        11.377718546904877     
 He   1.7017349747258332       0.96238533839952023        8.1373861466202619     
 He   6.0035511467842682        5.4107423794952600        4.7507962121142455     
 He   5.5530558997284807        5.5079396018053126       -3.0923027974037169     
 He  -4.6666131484918560       -3.9711851715295197        10.553759805581496     
  8
# step:   19,  t(fs):   190.000,   E =  -0.412077E-04,   Ek =   0.747158E-06,   Ep =  -0.419548E-04
 He   7.9294562757639229        13.991324303381688      -0.92948968764063467     
 He  -2.2808926029824277        7.1261383096697708       -6.1787518570883595     
 He  -1.1295190883134267       -2.8256807527249546       0.62281544147671686     
 He   11.146245580561954       -2.2867363253956650        11.377504513999348     
 He   1.7030672667470994       0.96358029973124104        8.1351239556588251     
 He   6.0010669806319168        5.4083442098160148        4.7504327129432333     
 He   5.5521738471993949        5.5087376746845518       -3.0903172488348178     
 He  -4.6654519852284349       -3.9703357523956448        10.553092283050685     
  8
# step:   20,  t(fs):   200.000,   E =  -0.412077E-04,   Ek =   0.829773E-06,   Ep =  -0.420375E-04
 He   7.9291200654169236        13.990205682916406      -0.92953215358756902     
 He  -2.2796583578388345        7.1258194832484394       -6.1781570004595148     
 He  -1.1290939753311910       -2.8249386104772207       0.62386778766475703     
 He   11.145842923736032       -2.2865092860973033        11.377278851804494     
 He   1.7044751732011736       0.96484348335034475        8.1327359940296553     
 He   5.9984449626614049        5.4058128062173081        4.7500511515260682     
 He   5.5512437312120655        5.5095789808234388       -3.0882230783163283     
 He  -4.6642282486775732       -3.9694405732144107        10.552388560903433     
  8
# step:   21,  t(fs):   210.000,   E =  -0.412077E-04,   Ek =   0.917035E-06,   Ep =  -0.421247E-04
 He   7.9287664210674915        13.989029292791040      -0.92957693673262842     
 He  -2.2783602981939706        7.1254842317764977       -6.1775312722046021     
 He  -1.1286467116621710       -2.8241579299076225       0.62497474446165002     
 He   11.145419551098556       -2.2862705662991321        11.377041550790047     
 He   1.7059592755576916       0.96617547627654454        8.1302216980737985     
 He   5.9956845164378079        5.4031475869725600        4.7496517886567622     
 He   5.5502654902825883        5.5104635343121648       -3.0860200803794524     
 He  -4.6629419702079922       -3.9684996591550501        10.551648620899421     
  8
# step:   22,  t(fs):   220.000,   E =  -0.412077E-04,   Ek =   0.100901E-05,   Ep =  -0.422167E-04
 He   7.9283953135863809        13.987795071830593      -0.92962405806766069     
 He  -2.2769983456750711        7.1251325439964708       -6.1768746168982798     
 He  -1.1281772439689315       -2.8233386380468848       0.62613640929386960     
 He   11.144975452595475       -2.2860201603321704        11.376792600920046     
 He   1.7075201885363236       0.96757689923236578        8.1275804719578169     
 He   5.9927850327712040        5.4003479372040868        4.7492349011930175     
 He   5.5492390595907803        5.5113913497595099       -3.0837080387703422     
 He  -4.6615931830561594       -3.9675130368769693        10.550872443936528     
  8
# step:   23,  t(fs):   230.000,   E =  -0.412077E-04,   Ek =   0.110576E-05,   Ep =  -0.423134E-04
 He   7.9280067123588962        13.986502955753398      -0.92967353962606714     
 He  -2.2755724179909147        7.1247644080991765       -6.1761869762883466     
 He  -1.1276855161056867       -2.8224806581171031       0.62735288453745441     
 He   11.144510617671948       -2.2857580622385312        11.376531991650250     
 He   1.7091585606310302       0.96904840719458907        8.1248116871703679     
 He   5.9897458692285657        5.3974132083744815        4.7488007824745395     
 He   5.5481643709516648        5.5123624422609492       -3.0812867264153909     
 He  -4.6601819223655019       -3.9664807345599575        10.550060010062188     
  8
# step:   24,  t(fs):   240.000,   E =  -0.412077E-04,   Ek =   0.120736E-05,   Ep =  -0.424150E-04
 He   7.9276005852754992        13.985152877153320      -0.92972540448520491     
 He  -2.2740824289181849        7.1243798117233847       -6.1754682892778625     
 He  -1.1271714690877692       -2.8215839094949988       0.62862427754632066     
 He   11.144025035270872       -2.2854842657696071        11.376259711925394     
 He   1.7108750746616990       0.97059068997487985        8.1219146819914112     
 He   5.9865663496201744        5.3943427177510710        4.7483497427650541     
 He   5.5470413527853131        5.5133768273648895       -3.0787559053854903     
 He  -4.6587082252276009       -3.9654027819359365        10.549211298485373     
  8
# step:   25,  t(fs):   250.000,   E =  -0.412077E-04,   Ek =   0.131390E-05,   Ep =  -0.425216E-04
 He   7.9271768987219371        13.983744765481070      -0.92977967676887519     
 He  -2.2725282882871976        7.1239787419554634       -6.1747184919063782     
 He  -1.1266350410594361       -2.8206483076731894       0.62995070068192516     
 He   11.143518693831341       -2.2851987643841629        11.375975750176323     
 He   1.7126704483532120       0.97220447282972322        8.1188887609337748     
 He   5.9832457634605296        5.3911357478433688        4.7478821097183630     
 He   5.5458699300850007        5.5144345210369856       -3.0761153268593531     
 He  -4.6571721307253853       -3.9642792103222551        10.548326287589214     
  8
# step:   26,  t(fs):   260.000,   E =  -0.412077E-04,   Ek =   0.142544E-05,   Ep =  -0.426331E-04
 He   7.9267356175688839        13.982278547024602      -0.92983638164989302     
 He  -2.2709099019669909        7.1235611853290211       -6.1739375173302564     
 He  -1.1260761672599746       -2.8196737642194387       0.63133227134428305     
 He   11.142991581287054       -2.2849015512463309        11.375680094316971     
 He   1.7145454349419380       0.97389051709972729        8.1157331941568831     
 He   5.9797833654037778        5.3877915458134700        4.7473982288687440     
 He   5.5446500243836425        5.5155355396224914       -3.0733647310860150     
 He  -4.6555736799783300       -3.9631100526565386        10.547404954944277     
  8
# step:   27,  t(fs):   270.000,   E =  -0.412076E-04,   Ek =   0.154208E-05,   Ep =  -0.427497E-04
 He   7.9262767051610945        13.980754144888602      -0.92989554535273422     
 He  -2.2692271718497805        7.1231271278245369       -6.1731252958020768     
 He  -1.1254947799880719       -2.8186601867338403       0.63276911200434249     
 He   11.142443685064640       -2.2845926192235080        11.375372731741200     
 He   1.7165008238095689       0.97564962087828688        8.1124472168524431     
 He   5.9761783746537560        5.3843093228594281        4.7468984641459757     
 He   5.5433815537184605        5.5166798998065971       -3.0705038473466435     
 He  -4.6539129161896664       -3.9618953435330995        10.546447277322489     
  8
# step:   28,  t(fs):   280.000,   E =  -0.412076E-04,   Ek =   0.166391E-05,   Ep =  -0.428715E-04
 He   7.9258001233060575        13.979171478973043      -0.92995719515625475     
 He  -2.2674799958347771        7.1226765548689857       -6.1722817546491182     
 He  -1.1248908085644096       -2.8176074788038972       0.63426135023771990     
 He   11.141874992081929       -2.2842719608841549        11.375053649319492     
 He   1.7185374411441321       0.97748261970951411        8.1090300286019819     
 He   5.9724299743488354        5.3806882535717273        4.7463831984152112     
 He   5.5420644325938424        5.5178676185726987       -3.0675323939157790     
 He  -4.6521898846956091       -3.9606351192409135        10.545453230711743     
  8
# step:   29,  t(fs):   290.000,   E =  -0.412076E-04,   Ek =   0.179102E-05,   Ep =  -0.429986E-04
 He   7.9253058322621461        13.977530465950807      -0.93002135939647712     
 He  -2.2656682678113698        7.1222094513354532       -6.1714068182509072     
 He  -1.1242641792924415       -2.8165155399574453       0.63580911875979895     
 He   11.141285488746165       -2.2839395684954931        11.374722833395497     
 He   1.7206561506279052       0.97939038731523764        8.1054807927061852     
 He   5.9685373109218594        5.3769274752630665        4.7458528340418713     
 He   5.5406985719423423        5.5190987131585478       -3.0644500780221531     
 He  -4.6504046330166062       -3.9593294178031706        10.544422790331179     
  8
# step:   30,  t(fs):   300.000,   E =  -0.412076E-04,   Ek =   0.192351E-05,   Ep =  -0.431311E-04
 He   7.9247937907262571        13.975831019244350      -0.93008806746943917     
 He  -2.2637918776416708        7.1217258015427500       -6.1705004080158146     
 He  -1.1236148154173127       -2.8153842656133778       0.63741255546219511     
 He   11.140675160952142       -2.2835954340211018        11.374380269782424     
 He   1.7228578541518356       0.98137383635074882        8.1017986354860536     
 He   5.9644994934355875        5.3730260872718114        4.7453077934816461     
 He   5.5392838790837828        5.5203732010102264       -3.0612565958092328     
 He  -4.6485572109106217       -3.9579782790184042        10.543355930647163     
  8
# step:   31,  t(fs):   310.000,   E =  -0.412076E-04,   Ek =   0.206149E-05,   Ep =  -0.432691E-04
 He   7.9242639558209298        13.974073049001408      -0.93015734983409892     
 He  -2.2618507111424284        7.1212255892550163       -6.1695624423567024     
 He  -1.1229426370828723       -2.8142135470301155       0.63907180345058823     
 He   11.140043994080294       -2.2832395491184085        11.374025943759284     
 He   1.7251434925559144       0.98343391918882173        8.0979826455560211     
 He   5.9603155928942124        5.3689831502395959        4.7447485198955981     
 He   5.5378202576823936        5.5216910997338875       -3.0579516322956550     
 He  -4.6466476704284432       -3.9565817445032025        10.542252625389962     
  8
# step:   32,  t(fs):   320.000,   E =  -0.412076E-04,   Ek =   0.220507E-05,   Ep =  -0.434127E-04
 He   7.9237162830809424        13.972256462069726      -0.93022923801528901     
 He  -2.2598446500663014        7.1207087976813250       -6.1685928366655949     
 He  -1.1222475612867358       -2.8130032712517732       0.64078701108392588     
 He   11.139391972994714       -2.2828719051360773        11.373659840066972     
 He   1.7275140463947831       0.98557162873135895        8.0940318730692997     
 He   5.9559846415316837        5.3647976853637465        4.7441754777902645     
 He   5.5363076077019482        5.5230524270452026       -3.0545348613357186     
 He  -4.6446760659710336       -3.9551398577365071        10.541112847571137     
  8
# step:   33,  t(fs):   330.000,   E =  -0.412076E-04,   Ek =   0.235436E-05,   Ep =  -0.435620E-04
 He   7.9231507264393670        13.970381161970796      -0.93030376460671482     
 He  -2.2577735720824985        7.1201754094752845       -6.1675915032873743     
 He  -1.1215295018333424       -2.8117533210519663       0.64255833201499724     
 He   11.138719082041121       -2.2824924931112869        11.373281942904208     
 He   1.7299705367276390       0.98778799924780658        8.0899453289358512     
 He   5.9515056320777919        5.3604686736254106        4.7435891536824899     
 He   5.5347458253588320        5.5244572007164594       -3.0510059455801231     
 He  -4.6426424543489091       -3.9536526641055016        10.539936569501663     
  8
# step:   34,  t(fs):   340.000,   E =  -0.412076E-04,   Ek =   0.250950E-05,   Ep =  -0.437171E-04
 He   7.9225672382130865        13.968447048872582      -0.93038096327398834     
 He  -2.2556373507567855        7.1196254067346354       -6.1665583514924798     
 He  -1.1207883692849612       -2.8104635748751949       0.64438592523238003     
 He   11.138025305044769       -2.2821013037669031        11.372892235923299     
 He   1.7325140259312675       0.99008410723923368        8.0857219840135723     
 He   5.9468775170031885        5.3559950549945006        4.7429900567885772     
 He   5.5331348030729917        5.5259054385212396       -3.0473645364371467     
 He  -4.6405468948435571       -3.9521202109530900        10.538723762810784     
  8
# step:   35,  t(fs):   350.000,   E =  -0.412076E-04,   Ek =   0.267060E-05,   Ep =  -0.438782E-04
 He   7.9219657690877581        13.966454019561239      -0.93046086875769041     
 He  -2.2534358555308542        7.1190587710008488       -6.1654932874485997     
 He  -1.1200240709105849       -2.8091339067757524       0.64626995510376017     
 He   11.137310625308302       -2.2816983275085407        11.372490702225752     
 He   1.7351456185347440       0.99246107232668757        8.0813607682734983     
 He   5.9420992077448131        5.3513757276128713        4.7423787197371405     
 He   5.5314744294167033        5.5273971581766155       -3.0436102740344735     
 He  -4.6383894492708819       -3.9505425476269660        10.537474398465610     
  8
# step:   36,  t(fs):   360.000,   E =  -0.412076E-04,   Ek =   0.283780E-05,   Ep =  -0.440454E-04
 He   7.9213462681022122        13.964401967411785      -0.93054351687645365     
 He  -2.2511689517010613        7.1184754832587265       -6.1643962141913464     
 He  -1.1192365106326601       -2.8077641863540870       0.64821059142062398     
 He   11.136575025609551       -2.2812835544215120        11.372077324357726     
 He   1.7378664620740163       0.99492005816209561        8.0768605699400595     
 He   5.9371695739135264        5.3466095469574606        4.7417556993048029     
 He   5.5297645890610934        5.5289323772828061       -3.0397427871818907     
 He  -4.6361701820466781       -3.9489197255302719        10.536188446791478     
  8
# step:   37,  t(fs):   370.000,   E =  -0.412076E-04,   Ek =   0.301125E-05,   Ep =  -0.442188E-04
 He   7.9207086826322843        13.962290782357723      -0.93062894453005574     
 He  -2.2488365003965312        7.1178755239360028       -6.1632670315938940     
 He  -1.1184255889715902       -2.8063542786905553       0.65020800944432178     
 He   11.135818488199284       -2.2808569742676665        11.371652084305307     
 He   1.7406777479641957       0.99746227335959392        8.0722202346077356     
 He   5.9320874424861190        5.3416953249855315        4.7411215771736099     
 He   5.5280051627203584        5.5305111132602134       -3.0357616933350955     
 He  -4.6338891602541201       -3.9472517981738400        10.534865877493070     
  8
# step:   38,  t(fs):   380.000,   E =  -0.412076E-04,   Ek =   0.319109E-05,   Ep =  -0.443987E-04
 He   7.9200529583740646        13.960120350859588      -0.93071718970251549     
 He  -2.2464383585566274        7.1172588729029460       -6.1621056363355695     
 He  -1.1175912029879504       -2.8049040442764954       0.65226238995350216     
 He   11.135040994798910       -2.2804185764821128        11.371214963489628     
 He   1.7435807123869371        1.0000889724447037        8.0674385643357880     
 He   5.9268515969843216        5.3366318292646042        4.7404769607087056     
 He   5.5261960270936026        5.5321333832837833       -3.0316665985608577     