  8
# step:    0,  t(fs):  0.000,   E =  -0.843456E-04,   Ek =   0.000000E+00,   Ep =  -0.843456E-04
 H    7.9325599417530004        14.001660976296002      -0.92910273432599999     
 H   -2.2922944510830003        7.1290861985550000       -6.1842420458160001     
 H   -1.1334388175190002       -2.8325293485510001       0.61310273588399999     
 H    11.149969805091001       -2.2888362523200003        11.379590423502000     
 H    1.6902088183620001       0.95206290644100000        8.1570594024330010     
 H    6.0251649027180001        5.4316019347080005        4.7540406415529999     
 H    5.5607647136429996        5.5009548825780001       -3.1096387838550004     
 H   -4.6767886385850002       -3.9786293309400000        10.559600474190001     
  8
# step:    1,  t(fs):    10.000,   E =  -0.843456E-04,   Ek =   0.317167E-07,   Ep =  -0.843773E-04
 H    7.9324899421288793        14.001427805382461      -0.92911112505792093     
 H   -2.2920387841974321        7.1290198790386912       -6.1841187300605114     
 H   -1.1333506178310888       -2.8323749006368550       0.61332116823105098     
 H    11.149885282542945       -2.2887885768584297        11.379543083994138     
 H    1.6904732495610049       0.95229544455479653        8.1565867838179926     
 H    6.0246496242250656        5.4311058894038524        4.7539462416056892     
 H    5.5605718330111999        5.5011297854462793       -3.1092113469539306     
 H   -4.6765342550605737       -3.9784433595637934        10.559454037988495     
  8
# step:    2,  t(fs):    20.000,   E =  -0.843456E-04,   Ek =   0.127019E-06,   Ep =  -0.844726E-04
 H    7.9322798973186543        14.000728194938432      -0.92913632922738887     
 H   -2.2912716603046972        7.1288209027260780       -6.1837486964536810     
 H   -1.1330859377137936       -2.8319114450817899       0.61397661884125121     
 H    11.149631699467243       -2.2886455422212499        11.379401050165889     
 H    1.6912672973354730       0.95299381811369377        8.1551681613917868     
 H    6.0231030249955744        5.4296169898223594        4.7536633219609419     
 H    5.5599930935530377        5.5016545236192851       -3.1079287062151502     
 H   -4.6757711402714932       -3.9778854751498063        10.559014693101354     
  8
# step:    3,  t(fs):    30.000,   E =  -0.843456E-04,   Ek =   0.286367E-06,   Ep =  -0.846319E-04
 H    7.9319296693960029        13.999561851634635      -0.92917844278182238     
 H   -2.2899927095318922        7.1284892163225697       -6.1831316857654537     
 H   -1.1326445336748518       -2.8311386460438195       0.61506954877945730     
 H    11.149209009556436       -2.2884071236361638        11.379164276076970     
 H    1.6925932279761831       0.95416030872445101        8.1528012315259577     
 H    6.0205228103462112        5.4271329414489564        4.7531927259454010     
 H    5.5590282022869060        5.5025291854702916       -3.1057898709929592     
 H   -4.6744994019749972       -3.9769557671539180        10.558282330777450     
  8
# step:    4,  t(fs):    40.000,   E =  -0.843455E-04,   Ek =   0.510530E-06,   Ep =  -0.848560E-04
 H    7.9314390281073628        13.997928285857723      -0.92923762572090851     
 H   -2.2882013148747884        7.1280247309921796       -6.1822672652483908     
 H   -1.1320259987858858       -2.8300559424362750       0.61660072768046070     
 H    11.148617135588681       -2.2880732797663219        11.378832685072503     
 H    1.6944548311368108       0.95579873222285816        8.1494821418976198     
 H    6.0169051443939470        5.4236499084264853        4.7525358682152410     
 H    5.5576766699298616        5.5037539171801528       -3.1027931884195752     
 H   -4.6727192211159894       -3.9756543857097997        10.557256770088051     
  8
# step:    5,  t(fs):    50.000,   E =  -0.843454E-04,   Ek =   0.800600E-06,   Ep =  -0.851460E-04
 H    7.9308076503054457        13.995826810610030      -0.92931410222633715     
 H   -2.2858966113736816        7.1274273223403508       -6.1811548275888688     
 H   -1.1312297610111195       -2.8286625458920915       0.61857123554246252     
 H    11.147855969363912       -2.2876439526356371        11.378406169651102     
 H    1.6968574384923423       0.95791445832484945        8.1452054721062552     
 H    6.0122446330383568        5.4191624961493412        4.7516947484017695     
 H    5.5559378094183725        5.5053289210619569       -3.0989363407354080     
 H   -4.6704308538536257       -3.9739815431917975        10.555937758414025     
  8
# step:    6,  t(fs):    60.000,   E =  -0.843453E-04,   Ek =   0.115800E-05,   Ep =  -0.855033E-04
 H    7.9300351191522438        13.993256539962264      -0.92940816084089006     
 H   -2.2830774849594633        7.1266968303905722       -6.1797935894331619     
 H   -1.1302550808487237       -2.8269574378923412       0.62098246524476652     
 H    11.146925371615053       -2.2871190675239301        11.377884591279656     
 H    1.6998079496509368       0.96051443794664770        8.1399642066125075     
 H    6.0065343003533647        5.4136637271021053        4.7506719701567413     
 H    5.5538107338195761        5.5072544531886303       -3.0942163415874497     
 H   -4.6676346344029849       -3.9719375164069444        10.554324972132830     
  8
# step:    7,  t(fs):    70.000,   E =  -0.843452E-04,   Ek =   0.158449E-05,   Ep =  -0.859296E-04
 H    7.9291209230875674        13.990216387052165      -0.92952015469425453     
 H   -2.2797425709698342        7.1258330595554460       -6.1781825894828160     
 H   -1.1291010482656940       -2.8249393660372828       0.62383612579645309     
 H    11.145825171894920       -2.2864985328316325        11.377267780154224     
 H    1.7033148650614696       0.96360723795349390        8.1337497001110872     
 H    5.9997655586521699        5.4071450101980281        4.7494707655034603     
 H    5.5512943536151163        5.5095308202964777       -3.0886295313331931     
 H   -4.6643309786957126       -3.9695226494196905        10.552418017510039     
  8
# step:    8,  t(fs):    80.000,   E =  -0.843450E-04,   Ek =   0.208221E-05,   Ep =  -0.864272E-04
 H    7.9280644545579841        13.986705061619956      -0.92965050177204300     
 H   -2.2758902523356110        7.1248357786030683       -6.1763206861520610     
 H   -1.1277665789013576       -2.8226068394315975       0.62713424632462866     
 H    11.144555168439663       -2.2857822399137335        11.376555534906409     
 H    1.7073883255113123       0.96720308295186175        8.1265516355393395     
 H    5.9919281726375830        5.3995961040209703        4.7480950243176565     
 H    5.5483873733342932        5.5121583759298503       -3.0821715714002011     
 H   -4.6605203888638647       -3.9667373570133706        10.550216431801273     
  8
# step:    9,  t(fs):    90.000,   E =  -0.843448E-04,   Ek =   0.265368E-05,   Ep =  -0.869985E-04
 H    7.9268650084997843        13.982721067069221      -0.92979968522350598     
 H   -2.2715186574371447        7.1237047206197861       -6.1742065547783787     
 H   -1.1262504095085450       -2.8199581231486048       0.63087918081260808     
 H    11.143115128009937       -2.2849700628826533        11.375747622254435     
 H    1.7120401575951247       0.97131390352733094        8.1183579750643222     
 H    5.9830102182638196        5.3910050745900584        4.7465493286297855     
 H    5.5450882875078085        5.5151375157842439       -3.0748374377656620     
 H   -4.6562034585507810       -3.9635821287923769        10.547719684571396     
  8
# step:   10,  t(fs):   100.000,   E =  -0.843446E-04,   Ek =   0.330183E-05,   Ep =  -0.876464E-04
 H    7.9255217805683262        13.978262697039439      -0.92996825370228542     
 H   -2.2666256576309900        7.1224395829705944       -6.1718386843756496     
 H   -1.1245510925950815       -2.8169912317310168       0.63507361360005465     
 H    11.141504785711339       -2.2840618583797574        11.374843776598128     
 H    1.7172839242275093       0.97595339002043113        8.1091549046070543     
 H    5.9729980372426850        5.3813582485783176        4.7448389912355466     
 H    5.5413953759078058        5.5184686721972884       -3.0666214136362924     
 H   -4.6513808790515903       -3.9600575339282913        10.544927179238444     
  8
# step:   11,  t(fs):   110.000,   E =  -0.843444E-04,   Ek =   0.403003E-05,   Ep =  -0.883744E-04
 H    7.9240338651047626        13.973328031473892      -0.93015682173323666     
 H   -2.2612088644471493        7.1210400272586654       -6.1692153739176012     
 H   -1.1226669902214992       -2.8137039216781470       0.63972056565866986     
 H    11.139723844796100       -2.2830574653153359        11.373843699556977     
 H    1.7231349788319943       0.98113705048582123        8.0989267727842051     
 H    5.9618761885650402        5.3706401633645147        4.7429700977929974     
 H    5.5373066980342438        5.5221523077292476       -3.0575170814270929     
 H   -4.6460534462834886       -3.9561642265516537        10.541838254850083     
  8
# step:   12,  t(fs):   120.000,   E =  -0.843441E-04,   Ek =   0.484212E-05,   Ep =  -0.891862E-04
 H    7.9224002528296928        13.967914932163842      -0.93036607009679606     
 H   -2.2552656264574464        7.1195056792857141       -6.1663347281375325     
 H   -1.1205962669037082       -2.8100936828613725       0.64482340165846930     
 H    11.137771976448631       -2.2819567045770528        11.372747059450576     
 H    1.7296105212127932       0.98688227084062052        8.0876560256188732     
 H    5.9496273990301107        5.3588335159365954        4.7409495511291091     
 H    5.5328200868019142        5.5261889077669952       -3.0475173141579091     
 H   -4.6402220685819842       -3.9519029517883384        10.538452188100210     
  8
# step:   13,  t(fs):   130.000,   E =  -0.843438E-04,   Ek =   0.574244E-05,   Ep =  -0.900862E-04
 H    7.9206198282517706        13.962021037746814      -0.93059674622053479     
 H   -2.2487930258159281        7.1178361290151519       -6.1631946528285182     
 H   -1.1183368815617245       -2.8061577288010136       0.65038583784101545     
 H    11.135648819558238       -2.2807593787071845        11.371553490720917     
 H    1.7367296522298421       0.99320837429774245        8.0753231390551594     
 H    5.9362325156543250        5.3459191135727586        4.7387851158141849     
 H    5.5279331413768089        5.5305789720780787       -3.0366142664096505     
 H   -4.6338877753133287       -3.9472745524353443        10.534768195592429     
  8
# step:   14,  t(fs):   140.000,   E =  -0.843434E-04,   Ek =   0.673587E-05,   Ep =  -0.910793E-04
 H    7.9186913667775940        13.955643758133352      -0.93084966456533436     
 H   -2.2417878744725854        7.1160309305402105       -6.1597928496264762     
 H   -1.1158865784474372       -2.8018929857286010       0.65641195071720027     
 H    11.133353980483273       -2.2794652715494323        11.370262593296330     
 H    1.7445134231472541        1.0001366758900125        8.0619065522936229     
 H    5.9216704640715783        5.3318758305115459        4.7364854601015578     
 H    5.5226432191051771        5.5353230052346403       -3.0247993650072842     
 H   -4.6270517262848498       -3.9422799762647247        10.530785436355387     
  8
# step:   15,  t(fs):   150.000,   E =  -0.843431E-04,   Ek =   0.782783E-05,   Ep =  -0.921709E-04
 H    7.9166135315073864        13.948780268332632      -0.93112570699096486     
 H   -2.2342467100622030        7.1140896020595079       -6.1561268102566338     
 H   -1.1132428769757741       -2.7972960803487390       0.66290618660832867     
 H    11.130887032812209       -2.2780741478667861        11.368873931897477     
 H    1.7529848737628815        1.0076905260652504        8.0473826063717482     
 H    5.9059182187847679        5.3166805766400396        4.7340601909470212     
 H    5.5169474264737959        5.5404215058209587       -3.0120632996240060     
 H   -4.6197152219230597       -3.9369202839358612        10.526503014612031     
  8
# step:   16,  t(fs):   160.000,   E =  -0.843427E-04,   Ek =   0.902434E-05,   Ep =  -0.933670E-04
 H    7.9143848696989414        13.941427501642682      -0.93142582308260902     
 H   -2.2261657914707453        7.1120116258627881       -6.1521938102220410     
 H   -1.1104030603745458       -2.7923633262044425       0.66987337205042619     
 H    11.128247517128653       -2.2765857529329105        11.367387035286590     
 H    1.7621690509423709        1.0158953347501569        8.0317254944239913     
 H    5.8889507935924428        5.3003082867996856        4.7315198758378587     
 H    5.5108426090361649        5.5458749543335912       -2.9983960135295105     
 H   -4.6118797141732770       -3.9311966574845503        10.521919982800295     
  8
# step:   17,  t(fs):   170.000,   E =  -0.843422E-04,   Ek =   0.103320E-04,   Ep =  -0.946742E-04
 H    7.9120038088800007        13.933582142165463      -0.93175103041591034     
 H   -2.2175410940824118        7.1097964483298970       -6.1479909019108439     
 H   -1.1073641630587709       -2.7870907085390209       0.67731872508302615     
 H    11.125434940789322       -2.2749998121009241        11.365801395462375     
 H    1.7720929956759557        1.0247785636256606        8.0149072329272126     
 H    5.8707412639916114        5.2827319429473274        4.7288760423165792     
 H    5.5043253402370729        5.5516837996800676       -2.9837866947335190     
 H   -4.6035468180527763       -3.9251104093414710        10.517035344836081     
  8
# step:   18,  t(fs):   180.000,   E =  -0.843417E-04,   Ek =   0.117579E-04,   Ep =  -0.960997E-04
 H    7.9094686525866376        13.925240616600385      -0.93210241473322175     
 H   -2.2083683047113141        7.1074434799463821       -6.1435149070970905     
 H   -1.1041229566255837       -2.7814738675364201       0.68524786744544219     
 H    11.122448777726580       -2.2733160303554087        11.364116466804800     
 H    1.7827856818223484        1.0343696691750270        7.9968976673399919     
 H    5.8512608382735554        5.2639226465667859        4.7261411420063384     
 H    5.4973919090682397        5.5578484441815066       -2.9682237678011751     
 H   -4.5947183237604596       -3.9186629918112583        10.511848059599917     
  8
# step:   19,  t(fs):   190.000,   E =  -0.843412E-04,   Ek =   0.133099E-04,   Ep =  -0.976511E-04
 H    7.9067775757021792        13.916399085261643      -0.93248112999762633     
 H   -2.1986428162226774        7.1049520953395096       -6.1387624088078550     
 H   -1.1006759343561814       -2.7755080798107050       0.69366683770611914     
 H    11.119288468290465       -2.2715340918562279        11.362331665176450     
 H    1.7942778826874954        1.0446999717064580        7.9776645314148213     
 H    5.8304790009945027        5.2438497660539571        4.7233284600931418     
 H    5.4900383064917087        5.5643692269872673       -2.9516948866354062     
 H   -4.5853962092074880       -3.9118560069149018        10.506357044615356     
  8
# step:   20,  t(fs):   200.000,   E =  -0.843408E-04,   Ek =   0.149957E-04,   Ep =  -0.993365E-04
 H    7.9039286193676173        13.907053432254445      -0.93288839828363879     
 H   -2.1883597218495123        7.1023216333389385       -6.1337297425274695     
 H   -1.0970192941021186       -2.7691882380044848       0.70258210535476306     
 H    11.115953419149504       -2.2696536594865186        11.360446366990672     
 H    1.8066019316238791        1.0558024150744099        7.9571735878777359     
 H    5.8083637623955955        5.2224811942336000        4.7204519428105378     
 H    5.4822602105772127        5.5712464058168667       -2.9341869285264042     
 H   -4.5755826527821712       -3.9046912164602565        10.500561179868804     
  8
# step:   21,  t(fs):   210.000,   E =  -0.843403E-04,   Ek =   0.168237E-04,   Ep =  -0.101164E-03
 H    7.9009196854301624        13.897199254732106      -0.93332550945379922     
 H   -2.1775138092118507        7.0995513970668354       -6.1284129867076746     
 H   -1.0931489194253536       -2.7625088283462831       0.71200058589365267     
 H    11.112443003275269       -2.2676743744224881        11.358459908261654     
 H    1.8197913286588225        1.0677111668733563        7.9353888902583432     
 H    5.7848820614302969        5.1997837660612491        4.7175259033676014     
 H    5.4740529703173175        5.5784801369572321       -2.9156859897498970     
 H   -4.5652800460946583       -3.8971705521550080        10.494459311695120     
  8
# step:   22,  t(fs):   220.000,   E =  -0.843399E-04,   Ek =   0.188017E-04,   Ep =  -0.103142E-03
 H    7.8977485303913175        13.886831851139014      -0.93379382055799076     
 H   -2.1660995540468555        7.0966406540628890       -6.1228079525505086     
 H   -1.0890603588558840       -2.7554639060092136       0.72192965697551104     
 H    11.108756560043096       -2.2655958557499076        11.356371583658467     
 H    1.8338801249451817        1.0804609875034592        7.9122732230486736     
 H    5.7600003901468773        5.1757239078667165        4.7145645493105990     
 H    5.4654115881133807        5.5860704534633925       -2.8961773829385318     
 H   -4.5544910063571091       -3.8892961255093508        10.488050256618781     
  8
# step:   23,  t(fs):   230.000,   E =  -0.843397E-04,   Ek =   0.209366E-04,   Ep =  -0.105276E-03
 H    7.8944127588092359        13.875946208322238      -0.93429475487638236     
 H   -2.1541111136593734        7.0935886364505425       -6.1169101730288267     
 H   -1.0847488031292964       -2.7480470681095253       0.73237717565318039     
 H    11.104893395491175       -2.2634177001622584        11.354180645594717     
 H    1.8489019879723598        1.0940862659153576        7.8877888024302676     
 H    5.7336857358603828        5.1502686199972603        4.7115812491301838     
 H    5.4563307009711757        5.5940172415396390       -2.8756456363312397     
 H   -4.5432183879356529       -3.8810702371862553        10.481332804993100     
  8
# step:   24,  t(fs):   240.000,   E =  -0.843397E-04,   Ek =   0.232334E-04,   Ep =  -0.107573E-03
 H    7.8909098161017424        13.864536987365097      -0.93482980050622155     
 H   -2.1415423201037220        7.0903945411518796       -6.1107148911074809     
 H   -1.0802090602716432       -2.7402514241862015       0.74335149683509039     
 H    11.100852782793179       -2.2611394817894177        11.351886303398832     
 H    1.8648888093042701        1.1086195760700017        7.8618983559081563     
 H    5.7059069784931991        5.1233869383758419        4.7085874196101445     
 H    5.4468045605143853        5.6023202151176728       -2.8540744947891175     
 H   -4.5314652924514043       -3.8724953853378747        10.474305724215597     
  8
# step:   25,  t(fs):   250.000,   E =  -0.843402E-04,   Ek =   0.256936E-04,   Ep =  -0.110034E-03
 H    7.8872369806854845        13.852598507956495      -0.93540050836565813     
 H   -2.1283866731086420        7.0870575301601386       -6.1042170471264194     
 H   -1.0754355284145771       -2.7320695640156258       0.75486149308626616     
 H    11.096633963016782       -2.2587607522250690        11.349487722628680     
 H    1.8818686580361823        1.1240895456906845        7.8345667510694410     
 H    5.6766369387333917        5.0950520828076442        4.7055908631642414     
 H    5.4368270120267841        5.6109788886996261       -2.8314469221012306     
 H   -4.5192350765953968       -3.8635742723068942        10.466967761209681     
  8
# step:   26,  t(fs):   260.000,   E =  -0.843414E-04,   Ek =   0.283127E-04,   Ep =  -0.112654E-03
 H    7.8833913553723294        13.840124731056557      -0.93600848945214521     
 H   -2.1146373327582073        7.0835767308808819       -6.0974112653053378     
 H   -1.0704221662553011       -2.7234935226441230       0.76691657598665997     
 H    11.092236146263110       -2.2562810408477780        11.346984024620237     
 H    1.8998628003939853        1.1405177403387758        7.8057634178059647     
 H    5.6458553550186741        5.0652445882423667        4.7025933096796697     
 H    5.4263914728831599        5.6199925485975299       -2.8077451035128691     
 H   -4.5065313565377423       -3.8543098088572121        10.459317643742821     
  8
# step:   27,  t(fs):   270.000,   E =  -0.843437E-04,   Ek =   0.310770E-04,   Ep =  -0.115421E-03
 H    7.8793698579249689        13.827109239546713      -0.93665541114574191     
 H   -2.1002871119419559        7.0799512365557806       -6.0902918393280636     
 H   -1.0651624611319754       -2.7145147425743770       0.77952671937087381     
 H    11.087658513312444       -2.2536998555677230        11.344374286396262     
 H    1.9188813904775690        1.1579141419009094        7.7754659130217574     
 H    5.6135531822247220        5.0339568389406546        4.6995868117413471     
 H    5.4154909109435261        5.6293602227750590       -2.7829504464789645     
 H   -4.4933580074292907       -3.8447051148100186        10.451354079987530     
  8
# step:   28,  t(fs):   280.000,   E =  -0.843476E-04,   Ek =   0.339579E-04,   Ep =  -0.118306E-03
 H    7.8751692106478446        13.813545216453754      -0.93734299228481033     
 H   -2.0853284685872557        7.0761801067870165       -6.0828527169635764     
 H   -1.0596493947779828       -2.7051240331317565       0.79270248494663265     
 H    11.082900217941358       -2.2510166841822734        11.341657541111273     
 H    1.9389172800011296        1.1762706310433755        7.7436651215870596     
 H    5.5797387613455891        5.0011995947936159        4.6965484958722659     
 H    5.4041178237900969        5.6390806495765871       -2.7570435762116050     
 H   -4.4797191559807708       -3.8347635145733197        10.443075755507760     
  8
# step:   29,  t(fs):   290.000,   E =  -0.843539E-04,   Ek =   0.369054E-04,   Ep =  -0.121259E-03
 H    7.8707859288544535        13.799425420203123      -0.93807299665793920     
 H   -2.0697534976856100        7.0722623681860748       -6.0750874836794777     
 H   -1.0538754069653768       -2.6953115271814037       0.80645505105406634     
 H    11.077960390128972       -2.2482309965939327        11.338832779278695     
 H    1.9599371900146476        1.1955516607991450        7.7103727799200019     
 H    5.5444466133328092        4.9670113211862557        4.6934329775170402     
 H    5.3922642201158730        5.6491522456995442       -2.7300043204161990     
 H   -4.4656191634157594       -3.8244885255318071        10.434481326548811     
  8
# step:   30,  t(fs):   300.000,   E =  -0.843635E-04,   Ek =   0.398380E-04,   Ep =  -0.124202E-03
 H    7.8662163080044625        13.784742156174765      -0.93884722444498148     
 H   -2.0535539231217559        7.0681970151787494       -6.0669893452026882     
 H   -1.0478323574735273       -2.6850666355919652       0.82079624572725951     
 H    11.072838140437936       -2.2453422482397931        11.335898951121210     
 H    1.9818692419303918        1.2156810391582902        7.6756322470406513     
 H    5.5077498546063071        4.9314714028519022        4.6901615055921022     
 H    5.3799216051714991        5.6595730738031795       -2.7018116743650600     
 H   -4.4510625951753031       -3.8138838365681296        10.425569408096504     
  8
# step:   31,  t(fs):   310.000,   E =  -0.843774E-04,   Ek =   0.426316E-04,   Ep =  -0.127009E-03
 H    7.8614564092397705        13.769487243591348      -0.93966750099466390     
 H   -2.0367210893094621        7.0639830110094390       -6.0585511089809314     
 H   -1.0415114871564102       -2.6743780001816533       0.83573858581265148     
 H    11.067532565941516       -2.2423498852091850        11.332854970513340     
 H    2.0045856015960206        1.2365234658888946        7.6395337004823460     
 H    5.4697774736127931        4.8947185946340843        4.6866066448101593     
 H    5.3670809729977931        5.6703408101034540       -2.6724437326978090     
 H   -4.4360541725420095       -3.8029532730693822        10.416338554619903     
  8
# step:   32,  t(fs):   320.000,   E =  -0.843965E-04,   Ek =   0.451078E-04,   Ep =  -0.129504E-03
 H    7.8565020429633154        13.753651976450605      -0.94053566214017226     
 H   -2.0192459526304098        7.0596192890031766       -6.0497651644966561     
 H   -1.0349033793722420       -2.6632334463806808       0.85129532475993841     
 H    11.062042758171630       -2.2392533516908140        11.329699721152096     
 H    2.0278788762688973        1.2578593261164881        7.6022350961005314     
 H    5.4307378194989004        4.8569762047594978        4.6825711350211447     
 H    5.3537328092752690        5.6814527121015184       -2.6418775675220121     
 H   -4.4205986997953488       -3.7917007435927932        10.406787230690126     
  8
# step:   33,  t(fs):   330.000,   E =  -0.844204E-04,   Ek =   0.470286E-04,   Ep =  -0.131449E-03
 H    7.8513487499949415        13.737227076815980      -0.94145353502691476     
 H   -2.0011190726625858        7.0551047541641365       -6.0406234623814532     
 H   -1.0279979237253405       -2.6516199375488010       0.86748051290878103     
 H    11.056367813676840       -2.2360521005907579        11.326432065797448     
 H    2.0514312249296567        1.2793515530893660        7.5639900385631513     
 H    5.3909493307022203        4.8185851966425126        4.6777597489069906     
 H    5.3398671100606450        5.6929055861089548       -2.6100890229631073     
 H   -4.4047009585963641       -3.7801301619143937        10.396913767760100     
  8
# step:   34,  t(fs):   340.000,   E =  -0.844462E-04,   Ek =   0.481104E-04,   Ep =  -0.132557E-03
 H    7.8459917797071066        13.720202638322878      -0.94242291317365157     
 H   -1.9823306031741197        7.0504382852146970       -6.0311174922722515     
 H   -1.0207842849779243       -2.6395235338307739       0.88430907569621509     
 H    11.050506847882508       -2.2327456083788952        11.323050859652856     
 H    2.0747765247581227        1.3005048058712951        7.5251826026250779     
 H    5.3508781458671519        4.7800449628269774        4.6717440627158391     
 H    5.3254734234595427        5.7046957532929934       -2.5770523840100381     
 H   -4.3883655591423745       -3.7682453365521740        10.386716302330949     
  8
# step:   35,  t(fs):   350.000,   E =  -0.844662E-04,   Ek =   0.480783E-04,   Ep =  -0.132545E-03
 H    7.8404260644050758        13.702568057321193      -0.94344552426044637     
 H   -1.9628702828538604        7.0456187372074561       -6.0212382593385794     
 H   -1.0132508810794945       -2.6269293595868404       0.90179691713388799     
 H    11.044459012986946       -2.2293333953950505        11.319554969153405     
 H    2.0972594718856530        1.3206209434763323        7.4863661140963611     
 H    5.3111787013789389        4.7420577907251564        4.6639230701481749     
 H    5.3105409232869398        5.7168190113677753       -2.5427398630425198     
 H   -4.3715967356301872       -3.7560498183490258        10.376192689674713     
  8
# step:   36,  t(fs):   360.000,   E =  -0.844670E-04,   Ek =   0.467878E-04,   Ep =  -0.131255E-03
 H    7.8346461891151620        13.684311948855047      -0.94452298905474286     
 H   -1.9427274257672253        7.0406449448674726       -6.0109762593911871     
 H   -1.0053853753306807       -2.6138215846081545       0.91996105778611026     
 H    11.038223520507989       -2.2258150528452503        11.315943297469259     
 H    2.1180025903306201        1.3387623632781145        7.4482965633133560     
 H    5.2727263225952576        4.7055654566028169        4.6534888907844723     
 H    5.2950585256101910        5.7292705866763933       -2.5071208339721829     
 H   -4.3543980726813016       -3.7435466960594432        10.365340386629912     
  8
# step:   37,  t(fs):   370.000,   E =  -0.844329E-04,   Ek =   0.444176E-04,   Ep =  -0.128851E-03
 H    7.8286463559731168        13.665422045068935      -0.94565677018134986     
 H   -1.9218909115986389        7.0355157268291837       -6.0003214524575181     
 H  -0.99717468821955446       -2.6001834249943023       0.93881981738560771     
 H    11.031799668649349       -2.2221902772981350        11.312214817676645     
 H    2.1359032907799715        1.3537468511042399        7.4119409520220101     
 H    5.2366196503915203        4.6717543091471043        4.6394171911007671     
 H    5.2790150599002139        5.7420450684593769       -2.4701607395285778     
 H   -4.3367721514959667       -3.7307383315494058        10.354156297547410     
  8
# step:   38,  t(fs):   380.000,   E =  -0.843591E-04,   Ek =   0.416637E-04,   Ep =  -0.126023E-03
 H    7.8224203427183792        13.645885075246360      -0.94684811046832207     
 H   -1.9003491759292903        7.0302298908980605       -5.9892632346888659     
 H  -0.98860503341743933       -2.5859971686803473       0.95839305040180722     
 H    11.025186873675031       -2.2184589122944751        11.308368613439489     
 H    2.1496945366816198        1.3642102091195758        7.3784294980373426     
 H    5.2041193383991624        4.6419925902683046        4.6205133338481206     
 H    5.2623995048335406        5.7551363146665606       -2.4318196175647708     