  8
# step:    0,  t(fs):  0.000,   E =  -0.207334E-03,   Ek =   0.000000E+00,   Ep =  -0.207334E-03
 Ne   7.9325599417530004        14.001660976296002      -0.92910273432599999     
 Ne  -2.2922944510830003        7.1290861985550000       -6.1842420458160001     
 Ne  -1.1334388175190002       -2.8325293485510001       0.61310273588399999     
 Ne   11.149969805091001       -2.2888362523200003        11.379590423502000     
 Ne   1.6902088183620001       0.95206290644100000        8.1570594024330010     
 Ne   6.0251649027180001        5.4316019347080005        4.7540406415529999     
 Ne   5.5607647136429996        5.5009548825780001       -3.1096387838550004     
 Ne  -4.6767886385850002       -3.9786293309400000        10.559600474190001     
  8
# step:    1,  t(fs):    10.000,   E =  -0.207334E-03,   Ek =   0.878639E-08,   Ep =  -0.207343E-03
 Ne   7.9325513006977451        14.001632221218994      -0.92910373107075750     
 Ne  -2.2922631670595175        7.1290780556238476       -6.1842269045536691     
 Ne  -1.1334279485461078       -2.8325102773622390       0.61312960156811758     
 Ne   11.149959307456394       -2.2888303282996065        11.379584539824284     
 Ne   1.6902376478224252       0.95208754024815712        8.1570043945040531     
 Ne   6.0251056573801911        5.4315450986369678        4.7540270957338482     
 Ne   5.5607410662420085        5.5009763127003284       -3.1095873784955312     
 Ne  -4.6767575896131390       -3.9786066559994477        10.559582496054656     
  8
# step:    2,  t(fs):    20.000,   E =  -0.207334E-03,   Ek =   0.351497E-07,   Ep =  -0.207369E-03
 Ne   7.9325253768405064        14.001545954495530      -0.92910672175412845     
 Ne  -2.2921693131657750        7.1290536265697657       -6.1841814794890118     
 Ne  -1.1333953404441761       -2.8324530621541992       0.61321020092467426     
 Ne   11.149927814332795       -2.2888125561286414        11.379566888572800     
 Ne   1.6903241442315802       0.95216144974122374        8.1568393617629269     
 Ne   6.0249279129121511        5.4313745821090658        4.7539864602709683     
 Ne   5.5606701226472266        5.5010406035666479       -3.1094331577421266     
 Ne  -4.6766644429743112       -3.9785386314323898        10.559528561018899     
  8
# step:    3,  t(fs):    30.000,   E =  -0.207334E-03,   Ek =   0.791022E-07,   Ep =  -0.207413E-03
 Ne   7.9324821681066551        14.001402171647870      -0.92911170772344109     
 Ne  -2.2920128839315979        7.1290129106108751       -6.1841057667886625     
 Ne  -1.1333409896628797       -2.8323576980009202       0.61334454086696044     
 Ne   11.149875325060856       -2.2887829354777409        11.379537469092490     
 Ne   1.6904683316747076       0.95228465913675320        8.1565642773440281     
 Ne   6.0246316439487559        5.4310903601787350        4.7539187411488104     
 Ne   5.5605518786828014        5.5011477566744604       -3.1091761075688309     
 Ne  -4.6765091994993018       -3.9784252580030297        10.559438667193646     
  8
# step:    4,  t(fs):    40.000,   E =  -0.207334E-03,   Ek =   0.140665E-06,   Ep =  -0.207475E-03
 Ne   7.9324216710377788        14.001200865211731      -0.92911869122435387     
 Ne  -2.2917938702390583        7.1289559064440349       -6.1839997600624450     
 Ne  -1.1332648902831344       -2.8322241766901590       0.61353263291939086     
 Ne   11.149801838541626       -2.2887414657979219        11.379496280291486     
 Ne   1.6906702502992046       0.95245720880153872        8.1561790964622034     
 Ne   6.0242168082105367        5.4306923912662386        4.7538239483438609     
 Ne   5.5603863273875458        5.5012977745179361       -3.1088162045958376     
 Ne  -4.6762918605745014       -3.9782665369863954        10.559312811430695     
  8
# step:    5,  t(fs):    50.000,   E =  -0.207334E-03,   Ek =   0.219865E-06,   Ep =  -0.207554E-03
 Ne   7.9323438807906346        14.000942024734210      -0.92912767540102126     
 Ne  -2.2915122593210202        7.1288826122448281       -6.1838634503615211     
 Ne  -1.1331670340142830       -2.8320524867199270       0.61377449322090161     
 Ne   11.149707353236494       -2.2886881463205180        11.379443320640926     
 Ne   1.6909299563225493       0.95267915526135616        8.1556837563990445     
 Ne   6.0236833464973545        5.4301806171520210        4.7537020958282001     
 Ne   5.5601734590127894        5.5014906605854064       -3.1083534160846695     
 Ne  -4.6760124281445217       -3.9780624701703737        10.559150989323140     
  8
# step:    6,  t(fs):    60.000,   E =  -0.207334E-03,   Ek =   0.316742E-06,   Ep =  -0.207651E-03
 Ne   7.9322487911356845        14.000625636770865      -0.92913866429632641     
 Ne  -2.2911680347591012        7.1287930256675418       -6.1836968261757965     
 Ne  -1.1330474101901511       -2.8318426132936345       0.61407014252970837     
 Ne   11.149591867167123       -2.2886229760570878        11.379378588174719     
 Ne   1.6912475220432686       0.95295057121307414        8.1550781764837996     
 Ne   6.0230311826796665        5.4295549629689441        4.7535532015744009     
 Ne   5.5599132610193669        5.5017264193558573       -3.1077876999314364     
 Ne  -4.6756709047158607       -3.9778130598585575        10.558953195205932     
  8
# step:    7,  t(fs):    70.000,   E =  -0.207334E-03,   Ek =   0.431340E-06,   Ep =  -0.207765E-03
 Ne   7.9321363944552097        14.000251684881977      -0.92915166285217832     
 Ne  -2.2907611764810545        7.1286871438451422       -6.1834998734305842     
 Ne  -1.1329060057639715       -2.8315945383138441       0.61441960622942760     
 Ne   11.149455377915347       -2.2885459537993000        11.379302080489230     
 Ne   1.6916230358548205       0.95327154554000160        8.1543622580689856     
 Ne   6.0222602236875176        5.4288153371925283        4.7533772875616629     
 Ne   5.5596057180737430        5.5020050562944034       -3.1071190046581734     
 Ne  -4.6752672933616157       -3.9775183088739063        10.558719422156630     
  8
# step:    8,  t(fs):    80.000,   E =  -0.207334E-03,   Ek =   0.563713E-06,   Ep =  -0.207898E-03
 Ne   7.9320066817410018        13.999820149627963      -0.92916667690987387     
 Ne  -2.2902916607575676        7.1285649633892447       -6.1832725754825253     
 Ne  -1.1327428053021689       -2.8313082403746224       0.61482291433656411     
 Ne   11.149297882623054       -2.2884570781187925        11.379213794742910     
 Ne   1.6920566022622212       0.95364218333030282        8.1535358845008243     
 Ne   6.0213703594974266        5.4279616316293726        4.7531743797830801     
 Ne   5.5592508120432704        5.5023265778467518       -3.1063472694022645     
 Ne  -4.6748015977272415       -3.9771782205632196        10.558449661996287     
  8
# step:    9,  t(fs):    90.000,   E =  -0.207334E-03,   Ek =   0.713923E-06,   Ep =  -0.208048E-03
 Ne   7.9318596425916335        13.999331008563951      -0.92918371321052262     
 Ne  -2.2897594601984776        7.1284264803900808       -6.1830149131147598     
 Ne  -1.1325577909770030       -2.8309836947524860       0.61528010150936796     
 Ne   11.149119377992053       -2.2883563473670034        11.379113727655833     
 Ne   1.6925483419012084       0.95406260589826797        8.1525989210846301     
 Ne   6.0203614631173661        5.4269937214039761        4.7529445082538873     
 Ne   5.5588485219905728        5.5026909914326376       -3.1054724239039624     
 Ne  -4.6742738220373559       -3.9767927988024243        10.558143905290528     
  8
# step:   10,  t(fs):   100.000,   E =  -0.207334E-03,   Ek =   0.882040E-06,   Ep =  -0.208216E-03
 Ne   7.9316952652093047        13.998784236233517      -0.92920277939553408     
 Ne  -2.2891645437484085        7.1282716904164554       -6.1827268645313529     
 Ne  -1.1323509425580625       -2.8306208733959370       0.61579120705806512     
 Ne   11.148919860283906       -2.2882437596749803        11.379001875509195     
 Ne   1.6930983915596907       0.95453295080818668        8.1515512150453535     
 Ne   6.0192333905700970        5.4259114649442060        4.7526877070205078     
 Ne   5.5583988241670594        5.5030983054382281       -3.1044943884920064     
 Ne  -4.6736839711035900       -3.9763620480026756        10.557802141350775     
  8
# step:   11,  t(fs):   110.000,   E =  -0.207334E-03,   Ek =   0.106814E-05,   Ep =  -0.208402E-03
 Ne   7.9315135363962570        13.998179804161568      -0.92922388400716538     
 Ne  -2.2885068766818213        7.1281005885157063       -6.1824084053509676     
 Ne  -1.1321222374025985       -2.8302197449135718       0.61635627495646650     
 Ne   11.148699325319766       -2.2881193129531630        11.378878234144718     
 Ne   1.6937069042011879       0.95505337190052397        8.1503925954834600     
 Ne   6.0179859808751361        5.4247147039657220        4.7524040141702004     
 Ne   5.5579016920055517        5.5035485292074817       -3.1034130740673542     
 Ne  -4.6730320503334832       -3.9758859731172680        10.557424358235645     
  8
# step:   12,  t(fs):   120.000,   E =  -0.207334E-03,   Ek =   0.127232E-05,   Ep =  -0.208606E-03
 Ne   7.9313144415507679        13.997517680846384      -0.92924703648912810     
 Ne  -2.2877864205974880        7.1279131692136577       -6.1820595085997851     
 Ne  -1.1318716504446960       -2.8297802745607594       0.61697535385496050     
 Ne   11.148457768480172       -2.2879830048911405        11.378742798964005     
 Ne   1.6943740489899177       0.95562403932005280        8.1491228733264087     
 Ne   6.0166190560297137        5.4234032634557137        4.7520934718410590     
 Ne   5.5573570961120309        5.5040416730324528       -3.1022283820850327     
 Ne  -4.6723180657404217       -3.9753645796493622        10.557010542752513     
  8
# step:   13,  t(fs):   130.000,   E =  -0.207334E-03,   Ek =   0.149467E-05,   Ep =  -0.208829E-03
 Ne   7.9310979646627056        13.996797831750794      -0.92927224718725188     
 Ne  -2.2870031334123788        7.1277094265145688       -6.1816801447036660     
 Ne  -1.1315991541832648       -2.8293024242248759       0.61764849709489578     
 Ne   11.148195184704834       -2.2878348329573859        11.378595564927810     
 Ne   1.6951000113171379       0.95624513954554269        8.1477418412760017     
 Ne   6.0151324209890991        5.4219769516563465        4.7517561262320847     
 Ne   5.5567650042564889        5.5045777481425295       -3.1009402045341248     
 Ne  -4.6715420239546246       -3.9747978736605205        10.556560680459251     
  8
# step:   14,  t(fs):   140.000,   E =  -0.207334E-03,   Ek =   0.173529E-05,   Ep =  -0.209069E-03
 Ne   7.9308640883086543        13.996020219292495      -0.92929952735020327     
 Ne  -2.2861569693549719        7.1274893539010824       -6.1812702814795557     
 Ne  -1.1313047186688472       -2.8287861524090818       0.61837576272436001     
 Ne   11.147911568492406       -2.2876747943989648        11.378436526555253     
 Ne   1.6958849928282955       0.95691687542055326        8.1462492737519145     
 Ne   6.0135258636467448        5.4204355600483813        4.7513920276130150     
 Ne   5.5561253813628788        5.5051567666925880       -3.0995484239159028     
 Ne  -4.6707039322351624       -3.9741858617800547        10.556074755666121     
  8
# step:   15,  t(fs):   150.000,   E =  -0.207334E-03,   Ek =   0.199430E-05,   Ep =  -0.209328E-03
 Ne   7.9306127936466000        13.995184802833510      -0.92932888913025691     
 Ne  -2.2852478789579784        7.1272529443341694       -6.1808298841261200     
 Ne  -1.1309883114892236       -2.8282314142146281       0.61915721351536279     
 Ne   11.147606913900237       -2.2875028862412212        11.378265677922958     
 Ne   1.6967292114504779       0.95763946618481743        8.1446449268317913     
 Ne   6.0117991548147467        5.4187788633354854        4.7510012303335509     
 Ne   5.5554381894981644        5.5057787417500519       -3.0980529132201253     
 Ne  -4.6698037984830254       -3.9735285512151854        10.555552751437842     
  8
# step:   16,  t(fs):   160.000,   E =  -0.207334E-03,   Ek =   0.227182E-05,   Ep =  -0.209606E-03
 Ne   7.9303440604101789        13.994291538668762      -0.92936034558411729     
 Ne  -2.2842758090504884        7.1270001902530735       -6.1803589152136169     
 Ne  -1.1306498977538089       -2.8276381613216777       0.61999291698242986     
 Ne   11.147281214544106       -2.2873191052874398        11.378083012664126     
 Ne   1.6976329014196001       0.95841314750563911        8.1429285381882863     
 Ne   6.0099520482051867        5.4170066194298165        4.7505837928315655     
 Ne   5.5547033878604486        5.5064436872808349       -3.0964535358995113     
 Ne  -4.6688416312552254       -3.9728259497620084        10.554994649595839     
  8
# step:   17,  t(fs):   170.000,   E =  -0.207334E-03,   Ek =   0.256798E-05,   Ep =  -0.209902E-03
 Ne   7.9300578669024766        13.993340380013775      -0.92939391067378729     
 Ne  -2.2832407027495338        7.1267310835752555       -6.1798573346729917     
 Ne  -1.1302894400768198       -2.8270063419686249       0.62088294540261824     
 Ne   11.146934463597949       -2.2871234481184843        11.377888523967547     
 Ne   1.6985963133066895       0.95923817150865853        8.1410998270235311     
 Ne   6.0079842804129893        5.4151185694395378        4.7501397776398511     
 Ne   5.5539209327661796        5.5071516181341513       -3.0947501458424131     
 Ne  -4.6678174397799319       -3.9720780658172701        10.554400430720646     
  8
# step:   18,  t(fs):   180.000,   E =  -0.207334E-03,   Ek =   0.288292E-05,   Ep =  -0.210217E-03
 Ne   7.9297541899893833        13.992331276991493      -0.92942959926748114     
 Ne  -2.2821424994510733        7.1264456156963378       -6.1793250997841973     
 Ne  -1.1299068985592025       -2.8263359009298932       0.62182737583696035     
 Ne   11.146566653793560       -2.2869159110924153        11.377682204576532     
 Ne   1.6996197140425637       0.96011480680726402        8.1391584940015367     
 Ne   6.0058955709009867        5.4131144376589884        4.7496692513908725     
 Ne   5.5530907776364256        5.5079025500261753       -3.0929425873437073     
 Ne  -4.6667312339726452       -3.9712849083909503        10.553770074154485     
  8
# step:   19,  t(fs):   190.000,   E =  -0.207334E-03,   Ek =   0.321679E-05,   Ep =  -0.210551E-03
 Ne   7.9294330050924957        13.991264176618184      -0.92946742714057873     
 Ne  -2.2809811348203919        7.1261437774900473       -6.1787621651637314     
 Ne  -1.1295022307693017       -2.8256267794921954       0.62282629015334845     
 Ne   11.146177777420293       -2.2866964903440841        11.377464046787788     
 Ne   1.7007033869401094       0.96104333852984558        8.1371042211790936     
 Ne   6.0036856219879891        5.4109939315623219        4.7491722848189744     
 Ne   5.5522128729822011        5.5086964995225269       -3.0910306950739206     
 Ne  -4.6655830244533965       -3.9704464871196468        10.553103558004027     
  8
# step:   20,  t(fs):   200.000,   E =  -0.207334E-03,   Ek =   0.356975E-05,   Ep =  -0.210904E-03
 Ne   7.9290942861815612        13.990139022788465      -0.92950741097661649     
 Ne  -2.2797565407819258        7.1258255593081641       -6.1781684827513805     
 Ne  -1.1290753917222536       -2.8248789154292351       0.62387977505086911     
 Ne   11.145767826324747       -2.2864651817847066        11.377234042450217     
 Ne   1.7018476317132865       0.96202406834399878        8.1349366719358365     
 Ne   6.0013541188407151        5.4087567418015174        4.7486489527593845     
 Ne   5.5512871663888443        5.5095334840195607       -3.0890142940466196     
 Ne  -4.6643728225649772       -3.9695628122807660        10.552400859143310     
  8
# step:   21,  t(fs):   210.000,   E =  -0.207334E-03,   Ek =   0.394196E-05,   Ep =  -0.211276E-03
 Ne   7.9287380057664603        13.988955756259395      -0.92954956836831215     
 Ne  -2.2784686455085024        7.1254909509804714       -6.1775440017961776     
 Ne  -1.1286263338580849       -2.8240922429748250       0.62498792208559917     
 Ne   11.145336791910440       -2.2862219811014159        11.376992182963662     
 Ne   1.7030527644918896       0.96305731447668619        8.1326554909041633     
 Ne   5.9989007294705559        5.4064025422097561        4.7480993341433102     
 Ne   5.5503136024994228        5.5104135217244394       -3.0868931995840865     
 Ne  -4.6631006403921846       -3.9686338948075082        10.551661953216842     
  8
# step:   22,  t(fs):   220.000,   E =  -0.207334E-03,   Ek =   0.433361E-05,   Ep =  -0.211667E-03
 Ne   7.9283641348887244        13.987714314633653      -0.92959391781861911     
 Ne  -2.2771173734100021        7.1251399418147079       -6.1768886688415501     
 Ne  -1.1281550070184962       -2.8232666927944017       0.62615082769787567     
 Ne   11.144884665137479       -2.2859668837567968        11.376738459277570     
 Ne   1.7043191178309898       0.96414341172925855        8.1302603038998207     
 Ne   5.9963251047362292        5.4039309898112746        4.7475235119883328     
 Ne   5.5492921229971648        5.5113366316339576       -3.0846672172813050     
 Ne  -4.6617664907820915       -3.9676597463046535        10.550886814642874     
  8
# step:   23,  t(fs):   230.000,   E =  -0.207334E-03,   Ek =   0.474487E-05,   Ep =  -0.212079E-03
 Ne   7.9279726431125779        13.986414632341777      -0.92964047874180467     
 Ne  -2.2757026451214433        7.1247725205965278       -6.1762024277096694     
 Ne  -1.1276613584223121       -2.8224021919549127       0.62736859324105199     
 Ne   11.144411436522223       -2.2856998849883974        11.376472861889608     
 Ne   1.7056470407138669       0.96528271148612066        8.1277507178540382     
 Ne   5.9936268783535072        5.4013417248389208        4.7469215733832186     
 Ne   5.5482226665868959        5.5123028335120994       -3.0823361429682898     
 Ne  -4.6603703873653179       -3.9666403790651366        10.550075416616846     
  8
# step:   24,  t(fs):   240.000,   E =  -0.207334E-03,   Ek =   0.517594E-05,   Ep =  -0.212510E-03
 Ne   7.9275634985155055        13.985056640623469      -0.92968927146454927     
 Ne  -2.2742243774904849        7.1243886755894650       -6.1754852194849805     
 Ne  -1.1271453326395704       -2.8214986638930468       0.62864132501175440     
 Ne   11.143917096136938       -2.2854209798082272        11.376195380844198     
 Ne   1.7070368985471234       0.96647558171569603        8.1251263207481870     
 Ne   5.9908056669133209        5.3986343707607576        4.7462936094661696     
 Ne   5.5471051689754765        5.5133121478662961       -3.0798997626707858     
 Ne  -4.6589123445783143       -3.9655758060874118        10.549227731115005     
  8
# step:   25,  t(fs):   250.000,   E =  -0.207334E-03,   Ek =   0.562702E-05,   Ep =  -0.212961E-03
 Ne   7.9271366676783339        13.983640267507932      -0.92974031722705974     
 Ne  -2.2726824835643522        7.1239883945349058       -6.1747369824969089     
 Ne  -1.1266068715642312       -2.8205560283817834       0.62996913428165191     
 Ne   11.143401633609463       -2.2851301630022358        11.375906005730993     
 Ne   1.7084890731465259       0.96772240696220535        8.1223866815520598     
 Ne   5.9878610699096733        5.3958085343172151        4.7456397153954297     
 Ne   5.5459395628512187        5.5143645959223573       -3.0773578525693694     
 Ne  -4.6573923776866337       -3.9644660410935995        10.548343728898201     
  8
# step:   26,  t(fs):   260.000,   E =  -0.207334E-03,   Ek =   0.609834E-05,   Ep =  -0.213432E-03
 Ne   7.9266921156748218        13.982165437793244      -0.92979363818419203     
 Ne  -2.2710768725761867        7.1235716646520695       -6.1739576523017465     
 Ne  -1.1260459143854793       -2.8195742014952296       0.63135213733075601     
 Ne   11.142865038122848       -2.2848274291297743        11.375604725683296     
 Ne   1.7100039627119759       0.96902358832661728        8.1195313501669784     
 Ne   5.9847926697789449        5.3928638055704372        4.7449599903110391     
 Ne   5.5447257778622703        5.5154601995980412       -3.0747101789569888     
 Ne  -4.6558105028091976       -3.9633110985484086        10.547423379515857     
  8
# step:   27,  t(fs):   270.000,   E =  -0.207334E-03,   Ek =   0.659010E-05,   Ep =  -0.213924E-03
 Ne   7.9262298060607561        13.980632073024747      -0.92984925740657742     
 Ne  -2.2694074499308163        7.1231384726379989       -6.1731471616636906     
 Ne  -1.1254623975575924       -2.8185530955717173       0.63279045548226465     
 Ne   11.142307298415030       -2.2845127725230454        11.375291529376407     
 Ne   1.7115819817898472       0.97037954343495858        8.1165598573750675     
 Ne   5.9816000319523477        5.3897997579676451        4.7442545372864062     
 Ne   5.5434637405939551        5.5165989814752407       -3.0719564981949770     
 Ne  -4.6541667369435311       -3.9621109936788312        10.546466651310100     
  8
# step:   28,  t(fs):   280.000,   E =  -0.207334E-03,   Ek =   0.710256E-05,   Ep =  -0.214436E-03
 Ne   7.9257497008625402        13.979040091472445      -0.92990719888174567     
 Ne  -2.2676741171899519        7.1226888046675620       -6.1723054405350437     
 Ne  -1.1248562547683503       -2.8174926191751246       0.63428421513896782     
 Ne   11.141728402778492       -2.2841861872865383        11.374966405025912     
 Ne   1.7132235612207412       0.97179070639198506        8.1134717147961837     
 Ne   5.9782827049234477        5.3866159484205207        4.7435234632682244     
 Ne   5.5421533745450464        5.5177809647707425       -3.0690965566675756     
 Ne  -4.6524610979919681       -3.9608657424945961        10.545473511420077     
  8
# step:   29,  t(fs):   290.000,   E =  -0.207334E-03,   Ek =   0.763594E-05,   Ep =  -0.214970E-03
 Ne   7.9252517605652715        13.977389408107385      -0.92996748751523817     
 Ne  -2.2658767720568078        7.1222226463934684       -6.1714324160355583     
 Ne  -1.1242274169059534       -2.8163926770543917       0.63583354782123147     
 Ne   11.141128339059925       -2.2838476672964512        11.374629340385914     
 Ne   1.7149291480705178       0.97325752771800456        8.1102664148541397     
 Ne   5.9748402203328785        5.3833119174028257        4.7427668790030868     
 Ne   5.5407946001029691        5.5190061733055318       -3.0661300907350109     
 Ne  -4.6506936047888026       -3.9595753618093767        10.544443925786437     
  8
# step:   30,  t(fs):   300.000,   E =  -0.207334E-03,   Ek =   0.819049E-05,   Ep =  -0.215524E-03
 Ne   7.9247359441003002        13.975679934577018      -0.93003014913170412     
 Ne  -2.2640153083601477        7.1217399829462966       -6.1705280124309168     
 Ne  -1.1235758120244221       -2.8152531701011938       0.63743859020657800     
 Ne   11.140507094659920       -2.2834972062001042        11.374280322747195     
 Ne   1.7166992055422390       0.97478047426641901        8.1069434307540433     
 Ne   5.9712720930725922        5.3798871890686968        4.7419848989489974     
 Ne   5.5393873345179010        5.5202746314726046       -3.0630568266851634     
 Ne  -4.6488642771283839       -3.9582398692627421        10.543377859155971     
  8
# step:   31,  t(fs):   310.000,   E =  -0.207334E-03,   Ek =   0.876650E-05,   Ep =  -0.216100E-03
 Ne   7.9242022088322583        13.973911579179514      -0.93009521047597243     
 Ne  -2.2620896160377582        7.1212407989345410       -6.1695921511103391     
 Ne  -1.1229013653074456       -2.8140739953057365       0.63909948417088291     
 Ne   11.139864656532657       -2.2831347974153449        11.373919338935336     
 Ne   1.7185342128664196       0.97636002911929987        8.1035022164727728     
 Ne   5.9675778214122204        5.3763412713943071        4.7411776411697648     
 Ne   5.5379314918757698        5.5215863642032517       -3.0598764806838754     
 Ne  -4.6469731357941226       -3.9568592833428369        10.542275275086432     
  8
# step:   32,  t(fs):   320.000,   E =  -0.207334E-03,   Ek =   0.936421E-05,   Ep =  -0.216698E-03
 Ne   7.9236505105455528        13.972084246837017      -0.93016269921409023     
 Ne  -2.2600995811193503        7.1207250784446741       -6.1686247505633096     
 Ne  -1.1222039990306443       -2.8128550457106321       0.64081637683120585     
 Ne   11.139201011185621       -2.2827604341299459        11.373546375308759     
 Ne   1.7204346651667162       0.97799669145803481        8.0999422067648172     
 Ne   5.9637568871503905        5.3726736563458548        4.7403452272100610     
 Ne   5.5364269830701183        5.5229413969317749       -3.0565887587239429     
 Ne  -4.6450202025884062       -3.9554336234097809        10.541136135951501     
  8
# step:   33,  t(fs):   330.000,   E =  -0.207334E-03,   Ek =   0.998392E-05,   Ep =  -0.217318E-03
 Ne   7.9230808034303148        13.970197839067826      -0.93023264393431981     
 Ne  -2.2580450857088912        7.1201928050412286       -6.1676257263554097     
 Ne  -1.1214836325222159       -2.8115962103628207       0.64258942059027868     
 Ne   11.138516144679334       -2.2823741093009988        11.373161417756732     
 Ne   1.7224010732978947       0.97969097640578029        8.0962628171859503     
 Ne   5.9598087557941177        5.3688838200771549        4.7394877819486885     
 Ne   5.5348737157728296        5.5243397555585974       -3.0531933565728413     
 Ne  -4.6430055003633859       -3.9539629097197708        10.539960402945921     
  8
# step:   34,  t(fs):   340.000,   E =  -0.207334E-03,   Ek =   0.106259E-04,   Ep =  -0.217960E-03
 Ne   7.9224930400677902        13.968252253957479      -0.93030507414808483     
 Ne  -2.2559260079663659        7.1196439617669016       -6.1665949911032456     
 Ne  -1.1207401821219247       -2.8102973742634911       0.64441877318267049     
 Ne   11.137810042627111       -2.2819758156543068        11.372764451697311     
 Ne   1.7244339636525925       0.98144341483811814        8.0924634441374685     
 Ne   5.9557328767697317        5.3649712231604338        4.7386054334273302     
 Ne   5.5332715944036881        5.5257814664117308       -3.0496899597192342     
 Ne  -4.6409290530526244       -3.9524471634498686        10.538748036090784     
  8
# step:   35,  t(fs):   350.000,   E =  -0.207334E-03,   Ek =   0.112905E-04,   Ep =  -0.218624E-03
 Ne   7.9218871714151655        13.966247386128716      -0.93038002029085531     
 Ne  -2.2537422220889725        7.1190785311426827       -6.1655324544484680     
 Ne  -1.1199735611384003       -2.8089584183159606       0.64630459772265347     
 Ne   11.137082690194845       -2.2815655456837773        11.372355462075232     
 Ne   1.7265338779330381       0.98325455315794330        8.0885434649340251     
 Ne   5.9515286836691264        5.3609353108542939        4.7376983126517764     
 Ne   5.5316205200987660        5.5272665562065537       -3.0460782433183153     
 Ne  -4.6387908857035702       -3.9508864067234564        10.537498994238952     
  8
# step:   36,  t(fs):   360.000,   E =  -0.207334E-03,   Ek =   0.119780E-04,   Ep =  -0.219312E-03
 Ne   7.9212631467898227        13.964183126710317      -0.93045751372296148     
 Ne  -2.2514935982917521        7.1184964951680056       -6.1644380230308595     
 Ne  -1.1191836798047041       -2.8075792192714673       0.64824706275379251     
 Ne   11.136334072100830       -2.2811432916508179        11.371934433359753     
 Ne   1.7287013728835035       0.98512495303020242        8.0845022378983966     
 Ne   5.9471955945355210        5.3567755134132371        4.7367665533622878     
 Ne   5.5299203906776100        5.5287950520038587       -3.0423578721360447     
 Ne  -4.6365910245108326       -3.9492806626363399        10.536213235080636     
  8
# step:   37,  t(fs):   370.000,   E =  -0.207334E-03,   Ek =   0.126887E-04,   Ep =  -0.220022E-03
 Ne   7.9206209138530017        13.962059363304764      -0.93053758673032438     
 Ne  -2.2491800027876541        7.1178978353209263       -6.1633116004604895     
 Ne  -1.1183704452321261       -2.8061596496728280       0.65024634230028278     
 Ne   11.135564172615616       -2.2807090455837402        11.371501349542454     
 Ne   1.7309370199788270       0.98705519107165296        8.0803391024868905     
 Ne   5.9427330121933384        5.3524912464435648        4.7358102917694165     
 Ne   5.5281711006092173        5.5303669811661322       -3.0385285004923257     
 Ne  -4.6343294968502233       -3.9476299552834750        10.534890715149094     
  8
# step:   38,  t(fs):   380.000,   E =  -0.207334E-03,   Ek =   0.134229E-04,   Ep =  -0.220756E-03
 Ne   7.9199604185928694        13.959875979954733      -0.93062027252509172     
 Ne  -2.2468012977670409        7.1172825325583364       -6.1621530872889183     
 Ne  -1.1175337613621670       -2.8046995777959141       0.65230261592006245     
 Ne   11.134772975561914       -2.2802627992771738        11.371056194134985     
 Ne   1.7332414050638800       0.98904585849031212        8.0760533794494940     
 Ne   5.9381403246272857        5.3480819113109792        4.7348296662511915     
 Ne   5.5263725409767845        5.5319823713120142       -3.0345897722031880     